# vtk DataFile Version 3.0
#This file was generated by the deal.II library on 2019/7/7 at 0:10:12
ASCII
DATASET UNSTRUCTURED_GRID

POINTS 2048 double
-1 1.087 0
-1 1.087 3
-4.5 1.087 0
-4.5 1.087 3
-1 0 0
-1 0 3
-4.5 0 0
-4.5 0 3
-1 1.087 3
-1 1.087 6
-4.5 1.087 3
-4.5 1.087 6
-1 0 3
-1 0 6
-4.5 0 3
-4.5 0 6
-4.5 1.087 0
-4.5 1.087 3
-8 1.087 0
-8 1.087 3
-4.5 0 0
-4.5 0 3
-8 0 0
-8 0 3
-4.5 1.087 3
-4.5 1.087 6
-8 1.087 3
-8 1.087 6
-4.5 0 3
-4.5 0 6
-8 0 3
-8 0 6
-1 0 0
-1 0 3
-4.5 0 0
-4.5 0 3
-1 -1.087 0
-1 -1.087 3
-4.5 -1.087 0
-4.5 -1.087 3
-1 0 3
-1 0 6
-4.5 0 3
-4.5 0 6
-1 -1.087 3
-1 -1.087 6
-4.5 -1.087 3
-4.5 -1.087 6
-4.5 0 0
-4.5 0 3
-8 0 0
-8 0 3
-4.5 -1.087 0
-4.5 -1.087 3
-8 -1.087 0
-8 -1.087 3
-4.5 0 3
-4.5 0 6
-8 0 3
-8 0 6
-4.5 -1.087 3
-4.5 -1.087 6
-8 -1.087 3
-8 -1.087 6
0 1.087 0
0 1.087 3
-0.5 1.087 0
-0.5 1.087 3
0 0 0
0 0 3
-0.5 0 0
-0.5 0 3
0 1.087 3
0 1.087 6
-0.5 1.087 3
-0.5 1.087 6
0 0 3
0 0 6
-0.5 0 3
-0.5 0 6
-0.5 1.087 0
-0.5 1.087 3
-1 1.087 0
-1 1.087 3
-0.5 0 0
-0.5 0 3
-1 0 0
-1 0 3
-0.5 1.087 3
-0.5 1.087 6
-1 1.087 3
-1 1.087 6
-0.5 0 3
-0.5 0 6
-1 0 3
-1 0 6
0 0 0
0 0 3
-0.5 0 0
-0.5 0 3
0 -1.087 0
0 -1.087 3
-0.5 -1.087 0
-0.5 -1.087 3
0 0 3
0 0 6
-0.5 0 3
-0.5 0 6
0 -1.087 3
0 -1.087 6
-0.5 -1.087 3
-0.5 -1.087 6
-0.5 0 0
-0.5 0 3
-1 0 0
-1 0 3
-0.5 -1.087 0
-0.5 -1.087 3
-1 -1.087 0
-1 -1.087 3
-0.5 0 3
-0.5 0 6
-1 0 3
-1 0 6
-0.5 -1.087 3
-0.5 -1.087 6
-1 -1.087 3
-1 -1.087 6
4 1.087 0
4 1.087 3
2 1.087 0
2 1.087 3
4 0 0
4 0 3
2 0 0
2 0 3
4 1.087 3
4 1.087 6
2 1.087 3
2 1.087 6
4 0 3
4 0 6
2 0 3
2 0 6
2 1.087 0
2 1.087 3
0 1.087 0
0 1.087 3
2 0 0
2 0 3
0 0 0
0 0 3
2 1.087 3
2 1.087 6
0 1.087 3
0 1.087 6
2 0 3
2 0 6
0 0 3
0 0 6
4 0 0
4 0 3
2 0 0
2 0 3
4 -1.087 0
4 -1.087 3
2 -1.087 0
2 -1.087 3
4 0 3
4 0 6
2 0 3
2 0 6
4 -1.087 3
4 -1.087 6
2 -1.087 3
2 -1.087 6
2 0 0
2 0 3
0 0 0
0 0 3
2 -1.087 0
2 -1.087 3
0 -1.087 0
0 -1.087 3
2 0 3
2 0 6
0 0 3
0 0 6
2 -1.087 3
2 -1.087 6
0 -1.087 3
0 -1.087 6
-14 6.087 0
-14 6.087 3
-15 6.087 0
-15 6.087 3
-12.75 4.837 0
-12.75 4.837 3
-14.375 4.837 0
-14.375 4.837 3
-14 6.087 3
-14 6.087 6
-15 6.087 3
-15 6.087 6
-12.75 4.837 3
-12.75 4.837 6
-14.375 4.837 3
-14.375 4.837 6
-15 6.087 0
-15 6.087 3
-16 6.087 0
-16 6.087 3
-14.375 4.837 0
-14.375 4.837 3
-16 4.837 0
-16 4.837 3
-15 6.087 3
-15 6.087 6
-16 6.087 3
-16 6.087 6
-14.375 4.837 3
-14.375 4.837 6
-16 4.837 3
-16 4.837 6
-12.75 4.837 0
-12.75 4.837 3
-14.375 4.837 0
-14.375 4.837 3
-11.5 3.587 0
-11.5 3.587 3
-13.75 3.587 0
-13.75 3.587 3
-12.75 4.837 3
-12.75 4.837 6
-14.375 4.837 3
-14.375 4.837 6
-11.5 3.587 3
-11.5 3.587 6
-13.75 3.587 3
-13.75 3.587 6
-14.375 4.837 0
-14.375 4.837 3
-16 4.837 0
-16 4.837 3
-13.75 3.587 0
-13.75 3.587 3
-16 3.587 0
-16 3.587 3
-14.375 4.837 3
-14.375 4.837 6
-16 4.837 3
-16 4.837 6
-13.75 3.587 3
-13.75 3.587 6
-16 3.587 3
-16 3.587 6
-11.5 3.587 0
-11.5 3.587 3
-13.75 3.587 0
-13.75 3.587 3
-10.25 2.337 0
-10.25 2.337 3
-13.125 2.337 0
-13.125 2.337 3
-11.5 3.587 3
-11.5 3.587 6
-13.75 3.587 3
-13.75 3.587 6
-10.25 2.337 3
-10.25 2.337 6
-13.125 2.337 3
-13.125 2.337 6
-13.75 3.587 0
-13.75 3.587 3
-16 3.587 0
-16 3.587 3
-13.125 2.337 0
-13.125 2.337 3
-16 2.337 0
-16 2.337 3
-13.75 3.587 3
-13.75 3.587 6
-16 3.587 3
-16 3.587 6
-13.125 2.337 3
-13.125 2.337 6
-16 2.337 3
-16 2.337 6
-10.25 2.337 0
-10.25 2.337 3
-13.125 2.337 0
-13.125 2.337 3
-9 1.087 0
-9 1.087 3
-12.5 1.087 0
-12.5 1.087 3
-10.25 2.337 3
-10.25 2.337 6
-13.125 2.337 3
-13.125 2.337 6
-9 1.087 3
-9 1.087 6
-12.5 1.087 3
-12.5 1.087 6
-13.125 2.337 0
-13.125 2.337 3
-16 2.337 0
-16 2.337 3
-12.5 1.087 0
-12.5 1.087 3
-16 1.087 0
-16 1.087 3
-13.125 2.337 3
-13.125 2.337 6
-16 2.337 3
-16 2.337 6
-12.5 1.087 3
-12.5 1.087 6
-16 1.087 3
-16 1.087 6
-9 1.087 0
-9 1.087 3
-12.5 1.087 0
-12.5 1.087 3
-9 0 0
-9 0 3
-12.5 0 0
-12.5 0 3
-9 1.087 3
-9 1.087 6
-12.5 1.087 3
-12.5 1.087 6
-9 0 3
-9 0 6
-12.5 0 3
-12.5 0 6
-12.5 1.087 0
-12.5 1.087 3
-16 1.087 0
-16 1.087 3
-12.5 0 0
-12.5 0 3
-16 0 0
-16 0 3
-12.5 1.087 3
-12.5 1.087 6
-16 1.087 3
-16 1.087 6
-12.5 0 3
-12.5 0 6
-16 0 3
-16 0 6
-9 0 0
-9 0 3
-12.5 0 0
-12.5 0 3
-9 -1.087 0
-9 -1.087 3
-12.5 -1.087 0
-12.5 -1.087 3
-9 0 3
-9 0 6
-12.5 0 3
-12.5 0 6
-9 -1.087 3
-9 -1.087 6
-12.5 -1.087 3
-12.5 -1.087 6
-12.5 0 0
-12.5 0 3
-16 0 0
-16 0 3
-12.5 -1.087 0
-12.5 -1.087 3
-16 -1.087 0
-16 -1.087 3
-12.5 0 3
-12.5 0 6
-16 0 3
-16 0 6
-12.5 -1.087 3
-12.5 -1.087 6
-16 -1.087 3
-16 -1.087 6
-8 1.087 0
-8 1.087 3
-8.5 1.087 0
-8.5 1.087 3
-8 0 0
-8 0 3
-8.5 0 0
-8.5 0 3
-8 1.087 3
-8 1.087 6
-8.5 1.087 3
-8.5 1.087 6
-8 0 3
-8 0 6
-8.5 0 3
-8.5 0 6
-8.5 1.087 0
-8.5 1.087 3
-9 1.087 0
-9 1.087 3
-8.5 0 0
-8.5 0 3
-9 0 0
-9 0 3
-8.5 1.087 3
-8.5 1.087 6
-9 1.087 3
-9 1.087 6
-8.5 0 3
-8.5 0 6
-9 0 3
-9 0 6
-8 0 0
-8 0 3
-8.5 0 0
-8.5 0 3
-8 -1.087 0
-8 -1.087 3
-8.5 -1.087 0
-8.5 -1.087 3
-8 0 3
-8 0 6
-8.5 0 3
-8.5 0 6
-8 -1.087 3
-8 -1.087 6
-8.5 -1.087 3
-8.5 -1.087 6
-8.5 0 0
-8.5 0 3
-9 0 0
-9 0 3
-8.5 -1.087 0
-8.5 -1.087 3
-9 -1.087 0
-9 -1.087 3
-8.5 0 3
-8.5 0 6
-9 0 3
-9 0 6
-8.5 -1.087 3
-8.5 -1.087 6
-9 -1.087 3
-9 -1.087 6
-17 1.087 0
-17 1.087 3
-20.5 1.087 0
-20.5 1.087 3
-17 0 0
-17 0 3
-20.5 0 0
-20.5 0 3
-17 1.087 3
-17 1.087 6
-20.5 1.087 3
-20.5 1.087 6
-17 0 3
-17 0 6
-20.5 0 3
-20.5 0 6
-20.5 1.087 0
-20.5 1.087 3
-24 1.087 0
-24 1.087 3
-20.5 0 0
-20.5 0 3
-24 0 0
-24 0 3
-20.5 1.087 3
-20.5 1.087 6
-24 1.087 3
-24 1.087 6
-20.5 0 3
-20.5 0 6
-24 0 3
-24 0 6
-17 0 0
-17 0 3
-20.5 0 0
-20.5 0 3
-17 -1.087 0
-17 -1.087 3
-20.5 -1.087 0
-20.5 -1.087 3
-17 0 3
-17 0 6
-20.5 0 3
-20.5 0 6
-17 -1.087 3
-17 -1.087 6
-20.5 -1.087 3
-20.5 -1.087 6
-20.5 0 0
-20.5 0 3
-24 0 0
-24 0 3
-20.5 -1.087 0
-20.5 -1.087 3
-24 -1.087 0
-24 -1.087 3
-20.5 0 3
-20.5 0 6
-24 0 3
-24 0 6
-20.5 -1.087 3
-20.5 -1.087 6
-24 -1.087 3
-24 -1.087 6
-16 1.087 0
-16 1.087 3
-16.5 1.087 0
-16.5 1.087 3
-16 0 0
-16 0 3
-16.5 0 0
-16.5 0 3
-16 1.087 3
-16 1.087 6
-16.5 1.087 3
-16.5 1.087 6
-16 0 3
-16 0 6
-16.5 0 3
-16.5 0 6
-16.5 1.087 0
-16.5 1.087 3
-17 1.087 0
-17 1.087 3
-16.5 0 0
-16.5 0 3
-17 0 0
-17 0 3
-16.5 1.087 3
-16.5 1.087 6
-17 1.087 3
-17 1.087 6
-16.5 0 3
-16.5 0 6
-17 0 3
-17 0 6
-16 0 0
-16 0 3
-16.5 0 0
-16.5 0 3
-16 -1.087 0
-16 -1.087 3
-16.5 -1.087 0
-16.5 -1.087 3
-16 0 3
-16 0 6
-16.5 0 3
-16.5 0 6
-16 -1.087 3
-16 -1.087 6
-16.5 -1.087 3
-16.5 -1.087 6
-16.5 0 0
-16.5 0 3
-17 0 0
-17 0 3
-16.5 -1.087 0
-16.5 -1.087 3
-17 -1.087 0
-17 -1.087 3
-16.5 0 3
-16.5 0 6
-17 0 3
-17 0 6
-16.5 -1.087 3
-16.5 -1.087 6
-17 -1.087 3
-17 -1.087 6
-24 1.087 0
-24 1.087 3
-27.5 1.087 0
-27.5 1.087 3
-24 0 0
-24 0 3
-27.5 0 0
-27.5 0 3
-24 1.087 3
-24 1.087 6
-27.5 1.087 3
-27.5 1.087 6
-24 0 3
-24 0 6
-27.5 0 3
-27.5 0 6
-27.5 1.087 0
-27.5 1.087 3
-31 1.087 0
-31 1.087 3
-27.5 0 0
-27.5 0 3
-31 0 0
-31 0 3
-27.5 1.087 3
-27.5 1.087 6
-31 1.087 3
-31 1.087 6
-27.5 0 3
-27.5 0 6
-31 0 3
-31 0 6
-24 0 0
-24 0 3
-27.5 0 0
-27.5 0 3
-24 -1.087 0
-24 -1.087 3
-27.5 -1.087 0
-27.5 -1.087 3
-24 0 3
-24 0 6
-27.5 0 3
-27.5 0 6
-24 -1.087 3
-24 -1.087 6
-27.5 -1.087 3
-27.5 -1.087 6
-27.5 0 0
-27.5 0 3
-31 0 0
-31 0 3
-27.5 -1.087 0
-27.5 -1.087 3
-31 -1.087 0
-31 -1.087 3
-27.5 0 3
-27.5 0 6
-31 0 3
-31 0 6
-27.5 -1.087 3
-27.5 -1.087 6
-31 -1.087 3
-31 -1.087 6
12 1.087 0
12 1.087 3
8 1.087 0
8 1.087 3
12 0 0
12 0 3
8 0 0
8 0 3
12 1.087 3
12 1.087 6
8 1.087 3
8 1.087 6
12 0 3
12 0 6
8 0 3
8 0 6
8 1.087 0
8 1.087 3
4 1.087 0
4 1.087 3
8 0 0
8 0 3
4 0 0
4 0 3
8 1.087 3
8 1.087 6
4 1.087 3
4 1.087 6
8 0 3
8 0 6
4 0 3
4 0 6
12 0 0
12 0 3
8 0 0
8 0 3
12 -1.087 0
12 -1.087 3
8 -1.087 0
8 -1.087 3
12 0 3
12 0 6
8 0 3
8 0 6
12 -1.087 3
12 -1.087 6
8 -1.087 3
8 -1.087 6
8 0 0
8 0 3
4 0 0
4 0 3
8 -1.087 0
8 -1.087 3
4 -1.087 0
4 -1.087 3
8 0 3
8 0 6
4 0 3
4 0 6
8 -1.087 3
8 -1.087 6
4 -1.087 3
4 -1.087 6
-14 -6.087 0
-12.75 -4.837 0
-15 -6.087 0
-14.375 -4.837 0
-14 -6.087 3
-12.75 -4.837 3
-15 -6.087 3
-14.375 -4.837 3
-12.75 -4.837 0
-11.5 -3.587 0
-14.375 -4.837 0
-13.75 -3.587 0
-12.75 -4.837 3
-11.5 -3.587 3
-14.375 -4.837 3
-13.75 -3.587 3
-15 -6.087 0
-14.375 -4.837 0
-16 -6.087 0
-16 -4.837 0
-15 -6.087 3
-14.375 -4.837 3
-16 -6.087 3
-16 -4.837 3
-14.375 -4.837 0
-13.75 -3.587 0
-16 -4.837 0
-16 -3.587 0
-14.375 -4.837 3
-13.75 -3.587 3
-16 -4.837 3
-16 -3.587 3
-14 -6.087 3
-12.75 -4.837 3
-15 -6.087 3
-14.375 -4.837 3
-14 -6.087 6
-12.75 -4.837 6
-15 -6.087 6
-14.375 -4.837 6
-12.75 -4.837 3
-11.5 -3.587 3
-14.375 -4.837 3
-13.75 -3.587 3
-12.75 -4.837 6
-11.5 -3.587 6
-14.375 -4.837 6
-13.75 -3.587 6
-15 -6.087 3
-14.375 -4.837 3
-16 -6.087 3
-16 -4.837 3
-15 -6.087 6
-14.375 -4.837 6
-16 -6.087 6
-16 -4.837 6
-14.375 -4.837 3
-13.75 -3.587 3
-16 -4.837 3
-16 -3.587 3
-14.375 -4.837 6
-13.75 -3.587 6
-16 -4.837 6
-16 -3.587 6
-11.5 -3.587 0
-10.25 -2.337 0
-13.75 -3.587 0
-13.125 -2.337 0
-11.5 -3.587 3
-10.25 -2.337 3
-13.75 -3.587 3
-13.125 -2.337 3
-10.25 -2.337 0
-9 -1.087 0
-13.125 -2.337 0
-12.5 -1.087 0
-10.25 -2.337 3
-9 -1.087 3
-13.125 -2.337 3
-12.5 -1.087 3
-13.75 -3.587 0
-13.125 -2.337 0
-16 -3.587 0
-16 -2.337 0
-13.75 -3.587 3
-13.125 -2.337 3
-16 -3.587 3
-16 -2.337 3
-13.125 -2.337 0
-12.5 -1.087 0
-16 -2.337 0
-16 -1.087 0
-13.125 -2.337 3
-12.5 -1.087 3
-16 -2.337 3
-16 -1.087 3
-11.5 -3.587 3
-10.25 -2.337 3
-13.75 -3.587 3
-13.125 -2.337 3
-11.5 -3.587 6
-10.25 -2.337 6
-13.75 -3.587 6
-13.125 -2.337 6
-10.25 -2.337 3
-9 -1.087 3
-13.125 -2.337 3
-12.5 -1.087 3
-10.25 -2.337 6
-9 -1.087 6
-13.125 -2.337 6
-12.5 -1.087 6
-13.75 -3.587 3
-13.125 -2.337 3
-16 -3.587 3
-16 -2.337 3
-13.75 -3.587 6
-13.125 -2.337 6
-16 -3.587 6
-16 -2.337 6
-13.125 -2.337 3
-12.5 -1.087 3
-16 -2.337 3
-16 -1.087 3
-13.125 -2.337 6
-12.5 -1.087 6
-16 -2.337 6
-16 -1.087 6
4 12 0
4 12 3
2 12 0
2 12 3
4 10.0435 0
4 10.0435 3
2 10.0435 0
2 10.0435 3
4 12 3
4 12 6
2 12 3
2 12 6
4 10.0435 3
4 10.0435 6
2 10.0435 3
2 10.0435 6
2 12 0
2 12 3
0 12 0
0 12 3
2 10.0435 0
2 10.0435 3
0 10.0435 0
0 10.0435 3
2 12 3
2 12 6
0 12 3
0 12 6
[...]
POINT_DATA 2048
SCALARS smoothPotential double 1
LOOKUP_TABLE default
324.964 394.275 335.181 390.787 336.508 393.506 346.01 394.208 394.275 414.232 390.787 410.57 393.506 425.16 394.208 423.455 335.181 390.787 341.035 392.403 346.01 394.208 350.294 393.713 390.787 410.57 392.403 404.675 394.208 423.455 393.713 417.407 336.508 393.506 346.01 394.208 325.1 394.428 335.227 390.841 393.506 425.16 394.208 423.455 394.428 414.404 390.841 410.628 346.01 394.208 350.294 393.713 335.227 390.841 341.035 392.403 394.208 423.455 393.713 417.407 390.841 410.628 392.403 404.675 315.573 395.715 320.432 393.373 334.562 387.617 335.116 391.248 395.715 408.937 393.373 411.75 387.617 416.132 391.248 422.002 320.432 393.373 324.964 394.275 335.116 391.248 336.508 393.506 393.373 411.75 394.275 414.232 391.248 422.002 393.506 425.16 334.562 387.617 335.116 391.248 315.729 395.89 320.577 393.537 387.617 416.132 391.248 422.002 395.89 409.137 393.537 411.936 335.116 391.248 336.508 393.506 320.577 393.537 325.1 394.428 391.248 422.002 393.506 425.16 393.537 411.936 394.428 414.404 317.378 324.215 334.955 356.768 317.38 324.184 335.912 356.436 324.215 330.45 356.768 372.091 324.184 330.48 356.436 372.72 334.955 356.768 315.573 395.715 335.912 356.436 334.562 387.617 356.768 372.091 395.715 408.937 356.436 372.72 387.617 416.132 317.38 324.184 335.912 356.436 317.403 324.24 334.999 356.815 324.184 330.48 356.436 372.72 324.24 330.476 356.815 372.141 335.912 356.436 334.562 387.617 334.999 356.815 315.729 395.89 356.436 372.72 387.617 416.132 356.815 372.141 395.89 409.137 359.695 391.117 359.841 390.758 353.295 392.928 363.293 390.369 391.117 403.25 390.758 401.433 392.928 401.197 390.369 406.138 359.841 390.758 363.747 390.248 363.293 390.369 354.295 390.461 390.758 401.433 390.248 403.447 390.369 406.138 390.461 395.564 353.295 392.928 363.293 390.369 348.056 391.849 365.199 389.429 392.928 401.197 390.369 406.138 391.849 400.348 389.429 405.276 363.293 390.369 354.295 390.461 365.199 389.429 347.691 392.48 390.369 406.138 390.461 395.564 389.429 405.276 392.48 390.259 348.056 391.849 365.199 389.429 351.519 393.252 368.52 388.683 391.849 400.348 389.429 405.276 393.252 408.112 388.683 403.124 365.199 389.429 347.691 392.48 368.52 388.683 343.237 394.243 389.429 405.276 392.48 390.259 388.683 403.124 394.243 386.743 351.519 393.252 368.52 388.683 340.876 391.396 369.479 387.843 393.252 408.112 388.683 403.124 391.396 401.58 387.843 397.725 368.52 388.683 343.237 394.243 369.479 387.843 334.796 394.208 388.683 403.124 394.243 386.743 387.843 397.725 394.208 378.844 340.876 391.396 369.479 387.843 353.661 392.64 372.744 388.216 391.396 401.58 387.843 397.725 392.64 414.262 388.216 401.827 369.479 387.843 334.796 394.208 372.744 388.216 350.59 393.027 387.843 397.725 394.208 378.844 388.216 401.827 393.027 406.999 353.661 392.64 372.744 388.216 340.876 391.396 369.482 387.846 392.64 414.262 388.216 401.827 391.396 401.58 387.846 397.729 372.744 388.216 350.59 393.027 369.482 387.846 334.796 394.208 388.216 401.827 393.027 406.999 387.846 397.729 394.208 378.844 341.035 392.403 340.361 390.277 350.294 393.713 351.51 393.124 392.403 404.675 390.277 402.509 393.713 417.407 393.124 415.988 340.361 390.277 340.876 391.396 351.51 393.124 353.661 392.64 390.277 402.509 391.396 401.58 393.124 415.988 392.64 414.262 350.294 393.713 351.51 393.124 341.035 392.403 340.361 390.277 393.713 417.407 393.124 415.988 392.403 404.675 390.277 402.509 351.51 393.124 353.661 392.64 340.361 390.277 340.876 391.396 393.124 415.988 392.64 414.262 390.277 402.509 391.396 401.58 344.026 390.77 352.901 388.957 350.344 392.9 358.301 391.614 390.77 386.09 388.957 388.068 392.9 408.126 391.614 405.37 352.901 388.957 357.147 390.779 358.301 391.614 361.256 391.714 388.957 388.068 390.779 385.603 391.614 405.37 391.714 401.735 350.344 392.9 358.301 391.614 344.026 390.77 352.901 388.957 392.9 408.126 391.614 405.37 390.77 386.09 388.957 388.068 358.301 391.614 361.256 391.714 352.901 388.957 357.147 390.779 391.614 405.37 391.714 401.735 388.957 388.068 390.779 385.603 334.796 394.208 340.086 391.97 350.59 393.027 349.704 393.142 394.208 378.844 391.97 383.14 393.027 406.999 393.142 407.877 340.086 391.97 344.026 390.77 349.704 393.142 350.344 392.9 391.97 383.14 390.77 386.09 393.142 407.877 392.9 408.126 350.59 393.027 349.704 393.142 334.796 394.208 340.086 391.97 393.027 406.999 393.142 407.877 394.208 378.844 391.97 383.14 349.704 393.142 350.344 392.9 340.086 391.97 344.026 390.77 393.142 407.877 392.9 408.126 391.97 383.14 390.77 386.09 357.147 390.779 359.865 389.189 361.256 391.714 363.873 391.221 390.779 385.603 389.189 382.458 391.714 401.735 391.221 399.636 359.865 389.189 375.317 388.346 363.873 391.221 374.159 388.642 389.189 382.458 388.346 393.003 391.221 399.636 388.642 391.891 361.256 391.714 363.873 391.221 357.147 390.779 359.865 389.189 391.714 401.735 391.221 399.636 390.779 385.603 389.189 382.458 363.873 391.221 374.159 388.642 359.865 389.189 375.317 388.346 391.221 399.636 388.642 391.891 389.189 382.458 388.346 393.003 195.724 196.009 259.337 260.184 195.725 196.01 259.338 260.185 196.009 196.122 260.184 260.986 196.01 196.125 260.185 260.995 259.337 260.184 317.378 324.215 259.338 260.185 317.38 324.184 260.184 260.986 324.215 330.45 260.185 260.995 324.184 330.48 195.725 196.01 259.338 260.185 195.735 196.019 259.351 260.199 196.01 196.125 260.185 260.995 196.019 196.133 260.199 261.001 259.338 260.185 317.38 324.184 259.351 260.199 317.403 324.24 260.185 260.995 324.184 330.48 260.199 261.001 324.24 330.476 360.109 353.295 360.263 363.417 391.561 392.928 391.211 390.501 353.295 348.056 363.417 365.228 392.928 391.849 390.501 389.46 360.263 363.417 364.174 354.295 391.211 390.501 390.706 390.461 363.417 365.228 354.295 347.691 390.501 389.46 390.461 392.48 391.561 392.928 391.211 390.501 403.796 401.197 401.99 406.288 392.928 391.849 390.501 389.46 401.197 400.348 406.288 405.31 391.211 390.501 390.706 390.461 401.99 406.288 404.009 395.564 390.501 389.46 390.461 392.48 406.288 405.31 395.564 390.259 348.056 351.519 365.228 368.53 391.849 393.252 389.46 388.694 351.519 340.876 368.53 369.482 393.252 391.396 388.694 387.846 365.228 368.53 347.691 343.237 389.46 388.694 392.48 394.243 368.53 369.482 343.237 334.796 388.694 387.846 394.243 394.208 391.849 393.252 389.46 388.694 400.348 408.112 405.31 403.135 393.252 391.396 388.694 387.846 408.112 401.58 403.135 397.729 389.46 388.694 392.48 394.243 405.31 403.135 390.259 386.743 388.694 387.846 394.243 394.208 403.135 397.729 386.743 378.844 320.582 324.951 345.549 357.448 320.232 324.943 343.923 357.628 324.951 329.192 357.448 368.482 324.943 329.443 357.628 369.372 345.549 357.448 357.381 390.397 343.923 357.628 348.555 392.562 357.448 368.482 390.397 420.138 357.628 369.372 392.562 418.914 320.232 324.943 343.923 357.628 319.481 324.888 341.094 357.823 324.943 329.443 357.628 369.372 324.888 329.946 357.823 370.942 343.923 357.628 348.555 392.562 341.094 357.823 337.882 394.975 357.628 369.372 392.562 418.914 357.823 370.942 394.975 415.468 319.481 324.888 341.094 357.823 318.809 324.778 339.209 357.803 324.888 329.946 357.823 370.942 324.778 330.324 357.803 372.138 341.094 357.823 337.882 394.975 339.209 357.803 333.487 395.845 357.823 370.942 394.975 415.468 357.803 372.138 395.845 416.887 318.809 324.778 339.209 357.803 318.224 324.613 337.784 357.618 324.778 330.324 357.803 372.138 324.613 330.538 357.618 372.886 339.209 357.803 333.487 395.845 337.784 357.618 330.222 395.669 357.803 372.138 395.845 416.887 357.618 372.886 395.669 418.32 318.224 324.613 337.784 357.618 317.721 324.414 336.389 357.398 324.613 330.538 357.618 372.886 324.414 330.592 357.398 373.297 337.784 357.618 330.222 395.669 336.389 357.398 327.025 396.482 357.618 372.886 395.669 418.32 357.398 373.297 396.482 418.544 317.721 324.414 336.389 357.398 317.378 324.215 334.955 356.768 324.414 330.592 357.398 373.297 324.215 330.45 356.768 372.091 336.389 357.398 327.025 396.482 334.955 356.768 315.573 395.715 357.398 373.297 396.482 418.544 356.768 372.091 395.715 408.937 195.88 196.086 259.838 260.445 195.846 196.088 259.798 260.432 196.086 196.321 260.445 261.051 196.088 196.266 260.432 261.054 259.838 260.445 320.582 324.951 259.798 260.432 320.232 324.943 260.445 261.051 324.951 329.192 260.432 261.054 324.943 329.443 195.846 196.088 259.798 260.432 195.825 196.072 259.702 260.391 196.088 196.266 260.432 261.054 196.072 196.159 260.391 261.057 259.798 260.432 320.232 324.943 259.702 260.391 319.481 324.888 260.432 261.054 324.943 329.443 260.391 261.057 324.888 329.946 195.825 196.072 259.702 260.391 195.802 196.054 259.594 260.338 196.072 196.159 260.391 261.057 196.054 196.137 260.338 261.054 259.702 260.391 319.481 324.888 259.594 260.338 318.809 324.778 260.391 261.057 324.888 329.946 260.338 261.054 324.778 330.324 195.802 196.054 259.594 260.338 195.765 196.031 259.485 260.276 196.054 196.137 260.338 261.054 196.031 196.127 260.276 261.037 259.594 260.338 318.809 324.778 259.485 260.276 318.224 324.613 260.338 261.054 324.778 330.324 260.276 261.037 324.613 330.538 195.765 196.031 259.485 260.276 195.737 196.015 259.393 260.22 196.031 196.127 260.276 261.037 196.015 196.123 260.22 261.012 259.485 260.276 318.224 324.613 259.393 260.22 317.721 324.414 260.276 261.037 324.613 330.538 260.22 261.012 324.414 330.592 195.737 196.015 259.393 260.22 195.724 196.009 259.337 260.184 196.015 196.123 260.22 261.012 196.009 196.122 260.184 260.986 259.393 260.22 317.721 324.414 259.337 260.184 317.378 324.215 260.22 261.012 324.414 330.592 260.184 260.986 324.215 330.45 -24.7962 4.05357 97.7823 99.6563 -31.2008 5.75097 97.3914 99.7784 4.05357 30.3409 99.6563 101.559 5.75097 30.3161 99.7784 101.294 97.7823 99.6563 195.88 196.086 97.3914 99.7784 195.846 196.088 99.6563 101.559 196.086 196.321 99.7784 101.294 196.088 196.266 -31.2008 5.75097 97.3914 99.7784 -38.4873 7.7776 97.1145 99.8816 5.75097 30.3161 99.7784 101.294 7.7776 29.0101 99.8816 100.724 97.3914 99.7784 195.846 196.088 97.1145 99.8816 195.825 196.072 99.7784 101.294 196.088 196.266 99.8816 100.724 196.072 196.159 -38.4873 7.7776 97.1145 99.8816 -41.8547 8.51673 97.0023 99.9177 7.7776 29.0101 99.8816 100.724 8.51673 30.39 99.9177 100.706 97.1145 99.8816 195.825 196.072 97.0023 99.9177 195.802 196.054 99.8816 100.724 196.072 196.159 99.9177 100.706 196.054 196.137 -41.8547 8.51673 97.0023 99.9177 -44.166 8.43674 96.8487 99.8916 8.51673 30.39 99.9177 100.706 8.43674 31.8875 99.8916 100.784 97.0023 99.9177 195.802 196.054 96.8487 99.8916 195.765 196.031 99.9177 100.706 196.054 196.137 99.8916 100.784 196.031 196.127 -44.166 8.43674 96.8487 99.8916 -45.475 8.56286 96.7475 99.8922 8.43674 31.8875 99.8916 100.784 8.56286 33.3543 99.8922 100.885 96.8487 99.8916 195.765 196.031 96.7475 99.8922 195.737 196.015 99.8916 100.784 196.031 196.127 99.8922 100.885 196.015 196.123 -45.475 8.56286 96.7475 99.8922 -46.1287 8.6716 96.6958 99.8964 8.56286 33.3543 99.8922 100.885 8.6716 34.2235 99.8964 100.945 96.7475 99.8922 195.737 196.015 96.6958 99.8964 195.724 196.009 99.8922 100.885 196.015 196.123 99.8964 100.945 196.009 196.122 -46.1287 8.6716 96.6958 99.8964 -46.2165 8.71932 96.6877 99.8978 8.6716 34.2235 99.8964 100.945 8.71932 34.4134 99.8978 100.957 96.6958 99.8964 195.724 196.009 96.6877 99.8978 195.725 196.01 99.8964 100.945 196.009 196.122 99.8978 100.957 196.01 196.125 -46.2165 8.71932 96.6877 99.8978 -46.0141 8.80097 96.7119 99.9136 8.71932 34.4134 99.8978 100.957 8.80097 34.3729 99.9136 100.964 96.6877 99.8978 195.725 196.01 96.7119 99.9136 195.735 196.019 99.8978 100.957 196.01 196.125 99.9136 100.964 196.019 196.133 320.717 320.368 345.695 344.083 325.088 325.081 357.599 357.794 320.368 319.615 344.083 341.274 325.081 325.025 357.794 358.012 345.695 344.083 357.488 348.712 357.599 357.794 390.518 392.743 344.083 341.274 348.712 338.127 357.794 358.012 392.743 395.255 325.088 325.081 357.599 357.794 329.331 329.583 368.637 369.543 325.081 325.025 357.794 358.012 329.583 330.085 369.543 371.14 357.599 357.794 390.518 392.743 368.637 369.543 420.264 419.106 357.794 358.012 392.743 395.255 369.543 371.14 419.106 415.78 319.615 318.929 341.274 339.38 325.025 324.9 358.012 357.982 318.929 318.316 339.38 337.897 324.9 324.707 357.982 357.735 341.274 339.38 338.127 333.879 358.012 357.982 395.255 396.273 339.38 337.897 333.879 330.295 357.982 357.735 396.273 395.751 325.025 324.9 358.012 357.982 330.085 330.448 371.14 372.329 324.9 324.707 357.982 357.735 330.448 330.634 372.329 373.009 358.012 357.982 395.255 396.273 371.14 372.329 415.78 417.403 357.982 357.735 396.273 395.751 372.329 373.009 417.403 418.407 318.316 317.782 337.897 336.47 324.707 324.476 357.735 357.483 317.782 317.403 336.47 334.999 324.476 324.24 357.483 356.815 337.897 336.47 330.295 327.129 357.735 357.483 395.751 396.601 336.47 334.999 327.129 315.729 357.483 356.815 396.601 395.89 324.707 324.476 357.735 357.483 330.634 330.655 373.009 373.385 324.476 324.24 357.483 356.815 330.655 330.476 373.385 372.141 357.735 357.483 395.751 396.601 373.009 373.385 418.407 418.672 357.483 356.815 396.601 395.89 373.385 372.141 418.672 409.137 195.949 195.913 259.933 259.89 196.155 196.155 260.54 260.525 195.913 195.886 259.89 259.787 196.155 196.133 260.525 260.476 259.933 259.89 320.717 320.368 260.54 260.525 325.088 325.081 259.89 259.787 320.368 319.615 260.525 260.476 325.081 325.025 196.155 196.155 260.54 260.525 196.39 196.334 261.146 261.147 196.155 196.133 260.525 260.476 196.334 196.22 261.147 261.142 260.54 260.525 325.088 325.081 261.146 261.147 329.331 329.583 260.525 260.476 325.081 325.025 261.147 261.142 329.583 330.085 195.886 195.856 259.787 259.667 196.133 196.108 260.476 260.412 195.856 195.806 259.667 259.542 196.108 196.072 260.412 260.333 259.787 259.667 319.615 318.929 260.476 260.412 325.025 324.9 259.667 259.542 318.929 318.316 260.412 260.333 324.9 324.707 196.133 196.108 260.476 260.412 196.22 196.192 261.142 261.128 196.108 196.072 260.412 260.333 196.192 196.168 261.128 261.094 260.476 260.412 325.025 324.9 261.142 261.128 330.085 330.448 260.412 260.333 324.9 324.707 261.128 261.094 330.448 330.634 195.806 195.764 259.542 259.43 196.072 196.041 260.333 260.257 195.764 195.735 259.43 259.351 196.041 196.019 260.257 260.199 259.542 259.43 318.316 317.782 260.333 260.257 324.707 324.476 259.43 259.351 317.782 317.403 260.257 260.199 324.476 324.24 196.072 196.041 260.333 260.257 196.168 196.149 261.094 261.05 196.041 196.019 260.257 260.199 196.149 196.133 261.05 261.001 260.333 260.257 324.707 324.476 261.094 261.05 330.634 330.655 260.257 260.199 324.476 324.24 261.05 261.001 330.655 330.476 -24.7583 -31.1444 97.8417 97.4505 4.09643 5.81561 99.7161 99.8381 -31.1444 -38.3989 97.4505 97.1705 5.81561 7.87904 99.8381 99.9384 97.8417 97.4505 195.949 195.913 99.7161 99.8381 196.155 196.155 97.4505 97.1705 195.913 195.886 99.8381 99.9384 196.155 196.133 4.09643 5.81561 99.7161 99.8381 30.3856 30.385 101.619 101.354 5.81561 7.87904 99.8381 99.9384 30.385 29.1229 101.354 100.782 99.7161 99.8381 196.155 196.155 101.619 101.354 196.39 196.334 99.8381 99.9384 196.155 196.133 101.354 100.782 196.334 196.22 -38.3989 -41.7128 97.1705 97.0598 7.87904 8.67245 99.9384 99.9763 -41.7128 -44.1157 97.0598 96.8882 8.67245 8.49417 99.9763 99.9315 97.1705 97.0598 195.886 195.856 99.9384 99.9763 196.133 196.108 97.0598 96.8882 195.856 195.806 99.9763 99.9315 196.108 196.072 7.87904 8.67245 99.9384 99.9763 29.1229 30.5774 100.782 100.768 8.67245 8.49417 99.9763 99.9315 30.5774 31.9483 100.768 100.824 99.9384 99.9763 196.133 196.108 100.782 100.768 196.22 196.192 99.9763 99.9315 196.108 196.072 100.768 100.824 196.192 196.168 -44.1157 -45.4012 96.8882 96.7744 8.49417 8.64782 99.9315 99.9197 -45.4012 -46.0141 96.7744 96.7119 8.64782 8.80097 99.9197 99.9136 96.8882 96.7744 195.806 195.764 99.9315 99.9197 196.072 196.041 96.7744 96.7119 195.764 195.735 99.9197 99.9136 196.041 196.019 8.49417 8.64782 99.9315 99.9197 31.9483 33.4469 100.824 100.913 8.64782 8.80097 99.9197 99.9136 33.4469 34.3729 100.913 100.964 99.9315 99.9197 196.072 196.041 100.824 100.913 196.168 196.149 99.9197 99.9136 196.041 196.019 100.913 100.964 196.149 196.133 
